<?xml version="1.0" encoding="UTF-8"?>

<!-- generated on 2026-03-05 12:42:16 by Eclipse SUMO sumo Version 1.18.0
<configuration xmlns:xsi="http://www.w3.org/2001/XMLSchema-instance" xsi:noNamespaceSchemaLocation="http://sumo.dlr.de/xsd/sumoConfiguration.xsd">

    <input>
        <net-file value="camMap.net.xml"/>
        <route-files value="temp_routes/cars_12.rou.xml"/>
    </input>

    <output>
        <tripinfo-output value="batch_results/BASELINE_v12_s0_tripinfo.xml"/>
        <statistic-output value="batch_results/BASELINE_v12_s0_stats.xml"/>
    </output>

    <time>
        <begin value="0"/>
        <end value="5000"/>
        <step-length value="0.1"/>
    </time>

    <report>
        <duration-log.statistics value="true"/>
        <no-step-log value="true"/>
    </report>

    <traci_server>
        <remote-port value="45259"/>
    </traci_server>

    <random_number>
        <seed value="0"/>
    </random_number>

</configuration>
-->

<tripinfos xmlns:xsi="http://www.w3.org/2001/XMLSchema-instance" xsi:noNamespaceSchemaLocation="http://sumo.dlr.de/xsd/tripinfo_file.xsd">
    <tripinfo id="2" depart="0.00" departLane="C3B3_0" departPos="5.10" departSpeed="0.00" departDelay="0.00" arrival="82.20" arrivalLane="B3A3_0" arrivalPos="485.60" arrivalSpeed="14.55" duration="82.20" routeLength="980.50" waitingTime="0.00" waitingCount="0" stopTime="0.00" timeLoss="14.80" rerouteNo="0" devices="tripinfo_2" vType="type1" speedFactor="1.05" vaporized=""/>
    <tripinfo id="4" depart="6.00" departLane="C3B3_0" departPos="5.10" departSpeed="0.00" departDelay="0.00" arrival="89.80" arrivalLane="B3A3_0" arrivalPos="485.60" arrivalSpeed="14.08" duration="83.80" routeLength="980.50" waitingTime="0.00" waitingCount="0" stopTime="0.00" timeLoss="14.22" rerouteNo="0" devices="tripinfo_4" vType="type1" speedFactor="1.02" vaporized=""/>
    <tripinfo id="6" depart="12.00" departLane="C3B3_0" departPos="5.10" departSpeed="0.00" departDelay="0.00" arrival="91.30" arrivalLane="B3A3_0" arrivalPos="485.60" arrivalSpeed="15.01" duration="79.30" routeLength="980.50" waitingTime="0.00" waitingCount="0" stopTime="0.00" timeLoss="18.17" rerouteNo="0" devices="tripinfo_6" vType="type1" speedFactor="1.16" vaporized=""/>
    <tripinfo id="1" depart="0.00" departLane="A3B3_0" departPos="5.10" departSpeed="0.00" departDelay="0.00" arrival="102.10" arrivalLane="B3B4_0" arrivalPos="485.60" arrivalSpeed="15.49" duration="102.10" routeLength="980.29" waitingTime="12.40" waitingCount="1" stopTime="0.00" timeLoss="38.17" rerouteNo="0" devices="tripinfo_1" vType="type1" speedFactor="1.12" vaporized=""/>
    <tripinfo id="3" depart="4.90" departLane="A3B3_0" departPos="5.10" departSpeed="0.00" departDelay="1.90" arrival="105.70" arrivalLane="B3B4_0" arrivalPos="485.60" arrivalSpeed="14.30" duration="100.80" routeLength="980.29" waitingTime="3.60" waitingCount="1" stopTime="0.00" timeLoss="31.50" rerouteNo="0" devices="tripinfo_3" vType="type1" speedFactor="1.03" vaporized=""/>
    <tripinfo id="5" depart="9.80" departLane="A3B3_0" departPos="5.10" departSpeed="0.00" departDelay="0.80" arrival="111.50" arrivalLane="B3B4_0" arrivalPos="485.60" arrivalSpeed="12.26" duration="101.70" routeLength="980.29" waitingTime="0.00" waitingCount="0" stopTime="0.00" timeLoss="20.93" rerouteNo="0" devices="tripinfo_5" vType="type1" speedFactor="0.88" vaporized=""/>
    <tripinfo id="8" depart="18.00" departLane="C3B3_0" departPos="5.10" departSpeed="0.00" departDelay="0.00" arrival="119.70" arrivalLane="B3A3_0" arrivalPos="485.60" arrivalSpeed="10.62" duration="101.70" routeLength="980.50" waitingTime="0.00" waitingCount="0" stopTime="0.00" timeLoss="9.30" rerouteNo="0" devices="tripinfo_8" vType="type1" speedFactor="0.76" vaporized=""/>
    <tripinfo id="10" depart="24.00" departLane="C3B3_0" departPos="5.10" departSpeed="0.00" departDelay="0.00" arrival="121.30" arrivalLane="B3A3_0" arrivalPos="485.60" arrivalSpeed="11.64" duration="97.30" routeLength="980.50" waitingTime="0.00" waitingCount="0" stopTime="0.00" timeLoss="41.61" rerouteNo="0" devices="tripinfo_10" vType="type1" speedFactor="1.27" vaporized=""/>
    <tripinfo id="12" depart="30.00" departLane="C3B3_0" departPos="5.10" departSpeed="0.00" departDelay="0.00" arrival="122.90" arrivalLane="B3A3_0" arrivalPos="485.60" arrivalSpeed="12.28" duration="92.90" routeLength="980.50" waitingTime="0.00" waitingCount="0" stopTime="0.00" timeLoss="18.16" rerouteNo="0" devices="tripinfo_12" vType="type1" speedFactor="0.95" vaporized=""/>
    <tripinfo id="7" depart="15.00" departLane="A3B3_0" departPos="5.10" departSpeed="0.00" departDelay="0.00" arrival="126.70" arrivalLane="B3B4_0" arrivalPos="485.60" arrivalSpeed="13.11" duration="111.70" routeLength="980.29" waitingTime="8.90" waitingCount="1" stopTime="0.00" timeLoss="36.22" rerouteNo="0" devices="tripinfo_7" vType="type1" speedFactor="0.95" vaporized=""/>
    <tripinfo id="9" depart="21.00" departLane="A3B3_0" departPos="5.10" departSpeed="0.00" departDelay="0.00" arrival="128.20" arrivalLane="B3B4_0" arrivalPos="485.60" arrivalSpeed="13.98" duration="107.20" routeLength="980.29" waitingTime="5.70" waitingCount="1" stopTime="0.00" timeLoss="39.50" rerouteNo="0" devices="tripinfo_9" vType="type1" speedFactor="1.05" vaporized=""/>
    <tripinfo id="11" depart="27.00" departLane="A3B3_0" departPos="5.10" departSpeed="0.00" departDelay="0.00" arrival="129.70" arrivalLane="B3B4_0" arrivalPos="485.60" arrivalSpeed="14.64" duration="102.70" routeLength="980.29" waitingTime="3.80" waitingCount="1" stopTime="0.00" timeLoss="39.29" rerouteNo="0" devices="tripinfo_11" vType="type1" speedFactor="1.13" vaporized=""/>
</tripinfos>
