<?xml version="1.0" encoding="UTF-8"?>

<!-- generated on 2026-03-05 12:44:27 by Eclipse SUMO sumo Version 1.18.0
<configuration xmlns:xsi="http://www.w3.org/2001/XMLSchema-instance" xsi:noNamespaceSchemaLocation="http://sumo.dlr.de/xsd/sumoConfiguration.xsd">

    <input>
        <net-file value="camMap.net.xml"/>
        <route-files value="temp_routes/cars_12.rou.xml"/>
    </input>

    <output>
        <tripinfo-output value="batch_results/BASELINE_v12_s2_tripinfo.xml"/>
        <statistic-output value="batch_results/BASELINE_v12_s2_stats.xml"/>
    </output>

    <time>
        <begin value="0"/>
        <end value="5000"/>
        <step-length value="0.1"/>
    </time>

    <report>
        <duration-log.statistics value="true"/>
        <no-step-log value="true"/>
    </report>

    <traci_server>
        <remote-port value="33189"/>
    </traci_server>

    <random_number>
        <seed value="2"/>
    </random_number>

</configuration>
-->

<tripinfos xmlns:xsi="http://www.w3.org/2001/XMLSchema-instance" xsi:noNamespaceSchemaLocation="http://sumo.dlr.de/xsd/tripinfo_file.xsd">
    <tripinfo id="2" depart="0.00" departLane="C3B3_0" departPos="5.10" departSpeed="0.00" departDelay="0.00" arrival="83.50" arrivalLane="B3A3_0" arrivalPos="485.60" arrivalSpeed="13.96" duration="83.50" routeLength="980.50" waitingTime="0.00" waitingCount="0" stopTime="0.00" timeLoss="13.32" rerouteNo="0" devices="tripinfo_2" vType="type1" speedFactor="1.01" vaporized=""/>
    <tripinfo id="1" depart="0.00" departLane="A3B3_0" departPos="5.10" departSpeed="0.00" departDelay="0.00" arrival="91.70" arrivalLane="B3B4_0" arrivalPos="485.60" arrivalSpeed="13.51" duration="91.70" routeLength="980.29" waitingTime="0.00" waitingCount="0" stopTime="0.00" timeLoss="18.35" rerouteNo="0" devices="tripinfo_1" vType="type1" speedFactor="0.97" vaporized=""/>
    <tripinfo id="4" depart="6.00" departLane="C3B3_0" departPos="5.10" departSpeed="0.00" departDelay="0.00" arrival="94.40" arrivalLane="B3A3_0" arrivalPos="485.60" arrivalSpeed="12.80" duration="88.40" routeLength="980.50" waitingTime="0.00" waitingCount="0" stopTime="0.00" timeLoss="11.81" rerouteNo="0" devices="tripinfo_4" vType="type1" speedFactor="0.92" vaporized=""/>
    <tripinfo id="6" depart="12.00" departLane="C3B3_0" departPos="5.10" departSpeed="0.00" departDelay="0.00" arrival="102.20" arrivalLane="B3A3_0" arrivalPos="485.60" arrivalSpeed="12.54" duration="90.20" routeLength="980.50" waitingTime="0.00" waitingCount="0" stopTime="0.00" timeLoss="12.01" rerouteNo="0" devices="tripinfo_6" vType="type1" speedFactor="0.90" vaporized=""/>
    <tripinfo id="8" depart="18.00" departLane="C3B3_0" departPos="5.10" departSpeed="0.00" departDelay="0.00" arrival="115.10" arrivalLane="B3A3_0" arrivalPos="485.60" arrivalSpeed="11.23" duration="97.10" routeLength="980.50" waitingTime="0.00" waitingCount="0" stopTime="0.00" timeLoss="9.81" rerouteNo="0" devices="tripinfo_8" vType="type1" speedFactor="0.81" vaporized=""/>
    <tripinfo id="10" depart="24.00" departLane="C3B3_0" departPos="5.10" departSpeed="0.00" departDelay="0.00" arrival="116.70" arrivalLane="B3A3_0" arrivalPos="485.60" arrivalSpeed="12.21" duration="92.70" routeLength="980.50" waitingTime="0.00" waitingCount="0" stopTime="0.00" timeLoss="25.02" rerouteNo="0" devices="tripinfo_10" vType="type1" speedFactor="1.04" vaporized=""/>
    <tripinfo id="3" depart="4.90" departLane="A3B3_0" departPos="5.10" departSpeed="0.00" departDelay="1.90" arrival="118.50" arrivalLane="B3B4_0" arrivalPos="485.60" arrivalSpeed="10.04" duration="113.60" routeLength="980.29" waitingTime="0.00" waitingCount="0" stopTime="0.00" timeLoss="15.00" rerouteNo="0" devices="tripinfo_3" vType="type1" speedFactor="0.72" vaporized=""/>
    <tripinfo id="12" depart="30.00" departLane="C3B3_0" departPos="5.10" departSpeed="0.00" departDelay="0.00" arrival="121.00" arrivalLane="B3A3_0" arrivalPos="485.60" arrivalSpeed="12.30" duration="91.00" routeLength="980.50" waitingTime="0.00" waitingCount="0" stopTime="0.00" timeLoss="11.51" rerouteNo="0" devices="tripinfo_12" vType="type1" speedFactor="0.89" vaporized=""/>
    <tripinfo id="5" depart="9.70" departLane="A3B3_0" departPos="5.10" departSpeed="0.00" departDelay="0.70" arrival="128.20" arrivalLane="B3B4_0" arrivalPos="485.60" arrivalSpeed="13.24" duration="118.50" routeLength="980.29" waitingTime="13.60" waitingCount="1" stopTime="0.00" timeLoss="43.75" rerouteNo="0" devices="tripinfo_5" vType="type1" speedFactor="0.95" vaporized=""/>
    <tripinfo id="7" depart="15.00" departLane="A3B3_0" departPos="5.10" departSpeed="0.00" departDelay="0.00" arrival="129.70" arrivalLane="B3B4_0" arrivalPos="485.60" arrivalSpeed="14.17" duration="114.70" routeLength="980.29" waitingTime="10.90" waitingCount="1" stopTime="0.00" timeLoss="45.34" rerouteNo="0" devices="tripinfo_7" vType="type1" speedFactor="1.03" vaporized=""/>
    <tripinfo id="9" depart="21.00" departLane="A3B3_0" departPos="5.10" departSpeed="0.00" departDelay="0.00" arrival="134.30" arrivalLane="B3B4_0" arrivalPos="485.60" arrivalSpeed="11.98" duration="113.30" routeLength="980.29" waitingTime="6.60" waitingCount="1" stopTime="0.00" timeLoss="30.68" rerouteNo="0" devices="tripinfo_9" vType="type1" speedFactor="0.86" vaporized=""/>
    <tripinfo id="11" depart="27.00" departLane="A3B3_0" departPos="5.10" departSpeed="0.00" departDelay="0.00" arrival="135.90" arrivalLane="B3B4_0" arrivalPos="485.60" arrivalSpeed="12.90" duration="108.90" routeLength="980.29" waitingTime="4.90" waitingCount="1" stopTime="0.00" timeLoss="39.71" rerouteNo="0" devices="tripinfo_11" vType="type1" speedFactor="1.03" vaporized=""/>
</tripinfos>
