<?xml version="1.0" encoding="UTF-8"?>

<!-- generated on 2026-03-05 00:40:05 by Eclipse SUMO sumo Version 1.18.0
<configuration xmlns:xsi="http://www.w3.org/2001/XMLSchema-instance" xsi:noNamespaceSchemaLocation="http://sumo.dlr.de/xsd/sumoConfiguration.xsd">

    <input>
        <net-file value="camMap.net.xml"/>
        <route-files value="temp_routes/cars_2.rou.xml"/>
    </input>

    <output>
        <tripinfo-output value="batch_results/V2X_v2_s40_tripinfo.xml"/>
        <statistic-output value="batch_results/V2X_v2_s40_stats.xml"/>
    </output>

    <time>
        <begin value="0"/>
        <end value="5000"/>
        <step-length value="0.1"/>
    </time>

    <report>
        <duration-log.statistics value="true"/>
        <no-step-log value="true"/>
    </report>

    <traci_server>
        <remote-port value="35021"/>
    </traci_server>

    <random_number>
        <seed value="40"/>
    </random_number>

</configuration>
-->

<tripinfos xmlns:xsi="http://www.w3.org/2001/XMLSchema-instance" xsi:noNamespaceSchemaLocation="http://sumo.dlr.de/xsd/tripinfo_file.xsd">
</tripinfos>
