<?xml version="1.0" encoding="UTF-8"?>

<!-- generated on 2026-03-05 00:39:09 by Eclipse SUMO sumo Version 1.18.0
<configuration xmlns:xsi="http://www.w3.org/2001/XMLSchema-instance" xsi:noNamespaceSchemaLocation="http://sumo.dlr.de/xsd/sumoConfiguration.xsd">

    <input>
        <net-file value="camMap.net.xml"/>
        <route-files value="temp_routes/cars_2.rou.xml"/>
    </input>

    <output>
        <tripinfo-output value="batch_results/V2X_v2_s20_tripinfo.xml"/>
        <statistic-output value="batch_results/V2X_v2_s20_stats.xml"/>
    </output>

    <time>
        <begin value="0"/>
        <end value="5000"/>
        <step-length value="0.1"/>
    </time>

    <report>
        <duration-log.statistics value="true"/>
        <no-step-log value="true"/>
    </report>

    <traci_server>
        <remote-port value="46561"/>
    </traci_server>

    <random_number>
        <seed value="20"/>
    </random_number>

</configuration>
-->

<tripinfos xmlns:xsi="http://www.w3.org/2001/XMLSchema-instance" xsi:noNamespaceSchemaLocation="http://sumo.dlr.de/xsd/tripinfo_file.xsd">
    <tripinfo id="1" depart="0.00" departLane="A3B3_0" departPos="5.10" departSpeed="0.00" departDelay="0.00" arrival="83.80" arrivalLane="B3B4_0" arrivalPos="485.60" arrivalSpeed="14.15" duration="83.80" routeLength="980.29" waitingTime="0.00" waitingCount="0" stopTime="0.00" timeLoss="13.92" rerouteNo="0" devices="tripinfo_1" vType="type1" speedFactor="1.02" vaporized=""/>
    <tripinfo id="2" depart="0.00" departLane="C3B3_0" departPos="5.10" departSpeed="0.00" departDelay="0.00" arrival="85.20" arrivalLane="B3A3_0" arrivalPos="485.60" arrivalSpeed="15.48" duration="85.20" routeLength="980.50" waitingTime="0.00" waitingCount="0" stopTime="0.00" timeLoss="21.99" rerouteNo="0" devices="tripinfo_2" vType="type1" speedFactor="1.12" vaporized=""/>
</tripinfos>
