<?xml version="1.0" encoding="UTF-8"?>

<!-- generated on 2026-03-05 00:38:40 by Eclipse SUMO sumo Version 1.18.0
<configuration xmlns:xsi="http://www.w3.org/2001/XMLSchema-instance" xsi:noNamespaceSchemaLocation="http://sumo.dlr.de/xsd/sumoConfiguration.xsd">

    <input>
        <net-file value="camMap.net.xml"/>
        <route-files value="temp_routes/cars_2.rou.xml"/>
    </input>

    <output>
        <tripinfo-output value="batch_results/V2X_v2_s10_tripinfo.xml"/>
        <statistic-output value="batch_results/V2X_v2_s10_stats.xml"/>
    </output>

    <time>
        <begin value="0"/>
        <end value="5000"/>
        <step-length value="0.1"/>
    </time>

    <report>
        <duration-log.statistics value="true"/>
        <no-step-log value="true"/>
    </report>

    <traci_server>
        <remote-port value="42765"/>
    </traci_server>

    <random_number>
        <seed value="10"/>
    </random_number>

</configuration>
-->

<tripinfos xmlns:xsi="http://www.w3.org/2001/XMLSchema-instance" xsi:noNamespaceSchemaLocation="http://sumo.dlr.de/xsd/tripinfo_file.xsd">
    <tripinfo id="1" depart="0.00" departLane="A3B3_0" departPos="5.10" departSpeed="0.00" departDelay="0.00" arrival="80.40" arrivalLane="B3B4_0" arrivalPos="485.60" arrivalSpeed="15.27" duration="80.40" routeLength="980.29" waitingTime="0.00" waitingCount="0" stopTime="0.00" timeLoss="15.50" rerouteNo="0" devices="tripinfo_1" vType="type1" speedFactor="1.10" vaporized=""/>
    <tripinfo id="2" depart="0.00" departLane="C3B3_0" departPos="5.10" departSpeed="0.00" departDelay="0.00" arrival="89.70" arrivalLane="B3A3_0" arrivalPos="485.60" arrivalSpeed="13.30" duration="89.70" routeLength="980.50" waitingTime="0.00" waitingCount="0" stopTime="0.00" timeLoss="16.03" rerouteNo="0" devices="tripinfo_2" vType="type1" speedFactor="0.96" vaporized=""/>
</tripinfos>
